version 3
run General-539-20251018-00:11:11-23841
attr configname General
attr datetime 20251018-00:11:11
attr datetimef 20251018-001111
attr experiment General
attr inifile omnetpp.ini
attr iterationvars "$0=6.0s, $1=0.8, $2=0.9"
attr iterationvarsd 6.0s/0.8/0.9
attr iterationvarsf 6.0s,0.8,0.9-
attr measurement "$0=6.0s, $1=0.8, $2=0.9"
attr network TwoNodeQueueing.simulations.TwoNodeNetwork
attr processid 23841
attr repetition 19
attr replication #19
attr resultdir results
attr runnumber 539
attr seedset 19
config network TwoNodeQueueing.simulations.TwoNodeNetwork
config sim-time-limit 20000s
config repeat 20
config seed-set 19
config warmup-period 1000s
config **.source.interArrivalTime 6.0s
config **.source.userTypeProbability 0.8
config **.node1.feedbackProbability 0.9

vector 0 TwoNodeNetwork.node1 queueLenNode1_U1:vector ETV
attr interpolationmode sample-hold
attr recordingmode vector
attr source queueLenNode1_U1
attr title "Queue Length Node 1 U1"
vector 1 TwoNodeNetwork.node1 queueLenNode1_U2:vector ETV
attr interpolationmode sample-hold
attr recordingmode vector
attr source queueLenNode1_U2
attr title "Queue Length Node 1 U2"
vector 2 TwoNodeNetwork.node2 queueLenSS1:vector ETV
attr interpolationmode sample-hold
attr recordingmode vector
attr source queueLenSS1
attr title "Queue Length SS1"
vector 3 TwoNodeNetwork.node2 queueLenSS2:vector ETV
attr interpolationmode sample-hold
attr recordingmode vector
attr source queueLenSS2
attr title "Queue Length SS2"
vector 4 TwoNodeNetwork.sink sojournTimeU1:vector ETV
attr interpolationmode none
attr recordingmode vector
attr source sojournTimeU1
attr title "Sojourn Time U1"
attr unit s
vector 5 TwoNodeNetwork.sink sojournTimeU2:vector ETV
attr interpolationmode none
attr recordingmode vector
attr source sojournTimeU2
attr title "Sojourn Time U2"
attr unit s
0	2954	1000.344854860081	1
0	2955	1000.513409244726	0
0	2962	1002.34264283551	1
0	2963	1002.836854688721	0
0	2966	1003.622123377228	1
0	2967	1003.836854688721	0
0	2970	1004.471112152432	1
0	2971	1004.836854688721	0
0	2978	1007.349979411495	1
0	2979	1009.15948162404	0
0	2982	1009.221731183756	1
0	2985	1010.15948162404	0
0	2988	1010.543521529428	1
0	2989	1011.15948162404	0
0	2998	1015.961001326955	1
0	2998	1015.961001326955	0
0	3002	1016.970925145439	1
0	3002	1016.970925145439	0
0	3004	1017.496377405254	1
0	3005	1017.970925145439	0
0	3026	1028.031566280796	1
0	3027	1029.253547913281	0
0	3032	1031.746108148096	1
0	3033	1031.903157573778	0
0	3036	1032.342473368048	1
0	3038	1032.866987138655	2
0	3039	1032.903157573778	1
0	3042	1033.340430670965	2
0	3043	1033.903157573778	1
0	3045	1034.903157573778	0
0	3054	1037.217544393138	1
0	3056	1037.400715406627	2
0	3057	1038.39133238638	1
0	3061	1039.39133238638	0
0	3064	1039.819063256798	1
0	3065	1040.39133238638	0
0	3068	1040.857505350086	1
0	3069	1041.39133238638	0
0	3078	1044.044220053109	1
0	3079	1044.232846788449	0
0	3088	1047.773548287345	1
0	3090	1047.881703466462	2
0	3091	1048.193554939555	1
0	3093	1049.193554939555	0
0	3098	1050.399678919524	1
0	3100	1051.021787194051	2
0	3101	1051.23502679038	1
0	3103	1052.23502679038	0
0	3116	1059.051806993286	1
0	3117	1059.672080019326	0
0	3120	1060.072046349365	1
0	3121	1060.672080019326	0
0	3124	1061.031624289151	1
0	3129	1061.672080019326	0
0	3132	1062.496472029801	1
0	3133	1062.672080019326	0
0	3138	1064.542833963865	1
0	3139	1065.385890844814	0
0	3146	1067.277472988196	1
0	3147	1068.2704554762	0
0	3150	1068.67464961046	1
0	3151	1069.2704554762	0
0	3158	1071.80810866566	1
0	3158	1071.80810866566	0
0	3160	1072.004599809633	1
0	3162	1072.541086195896	2
0	3163	1072.80810866566	1
0	3167	1073.80810866566	0
0	3174	1075.206787988047	1
0	3175	1075.844342327589	0
0	3180	1077.861657951047	1
0	3181	1078.750456474634	0
0	3184	1078.98345575894	1
0	3185	1079.750456474634	0
0	3188	1080.219540573246	1
0	3189	1080.750456474634	0
0	3194	1082.666848128405	1
0	3194	1082.666848128405	0
0	3198	1084.488951945992	1
0	3198	1084.488951945992	0
0	3200	1085.246065712303	1
0	3201	1085.488951945992	0
0	3208	1086.545324747503	1
0	3209	1088.030288630014	0
0	3212	1088.460764325381	1
0	3213	1089.030288630014	0
0	3218	1092.779556602228	1
0	3218	1092.779556602228	0
0	3222	1093.651161632065	1
0	3223	1093.779556602228	0
0	3228	1095.053134221228	1
0	3230	1095.525882859761	2
0	3231	1096.114737916261	1
0	3233	1097.114737916261	0
0	3238	1099.38378338474	1
0	3238	1099.38378338474	0
0	3242	1100.527586598167	1
0	3242	1100.527586598167	0
0	3244	1100.547458175493	1
0	3245	1101.527586598167	0
0	3250	1104.031479707454	1
0	3250	1104.031479707454	0
0	3256	1105.997511443199	1
0	3257	1106.772196963896	0
0	3266	1108.276690463836	1
0	3268	1108.535972025423	2
0	3270	1108.743375284033	3
0	3273	1109.391439893051	2
0	3276	1109.472924933302	3
0	3277	1110.391439893051	2
0	3279	1111.391439893051	1
0	3283	1112.391439893051	0
0	3286	1112.529492843364	1
0	3287	1113.391439893051	0
0	3290	1114.328463476019	1
0	3291	1114.391439893051	0
0	3298	1115.964609336935	1
0	3299	1116.595616271953	0
0	3302	1117.388218108064	1
0	3303	1117.595616271953	0
0	3316	1122.423241872605	1
0	3319	1122.957409448224	0
0	3322	1123.356251483329	1
0	3323	1123.957409448224	0
0	3330	1126.424358407326	1
0	3331	1126.732773677214	0
0	3340	1129.28565865442	1
0	3342	1129.605948173642	2
0	3343	1130.387937229593	1
0	3348	1131.16223689409	2
0	3349	1131.387937229593	1
0	3353	1132.387937229593	0
0	3360	1133.688026554132	1
0	3361	1134.706653168193	0
0	3366	1135.635464893487	1
0	3367	1135.706653168193	0
0	3376	1138.546712312908	1
0	3377	1139.278786061566	0
0	3382	1141.570029242525	1
0	3383	1142.100360272221	0
0	3388	1143.355874557606	1
0	3390	1143.363304487022	2
0	3391	1144.927713589512	1
0	3394	1145.28398112029	2
0	3395	1145.927713589512	1
0	3399	1146.927713589512	0
0	3402	1147.092932543928	1
0	3403	1147.927713589512	0
0	3410	1149.381188892539	1
0	3419	1150.864800299054	0
0	3438	1160.043173970436	1
0	3439	1160.830675676234	0
0	3450	1165.726105801139	1
0	3451	1166.703825599982	0
0	3464	1171.688215273866	1
0	3465	1171.867886981696	0
0	3468	1172.570269268791	1
0	3469	1172.867886981696	0
0	3476	1174.754972899357	1
0	3478	1175.357685458042	2
0	3480	1175.51919987605	3
0	3484	1175.663123003157	4
0	3486	1175.781290997778	5
0	3487	1176.059032598571	4
0	3490	1176.080199693132	5
0	3491	1177.059032598571	4
0	3495	1178.059032598571	3
0	3498	1178.281731959708	4
0	3501	1179.059032598571	3
0	3503	1180.059032598571	2
0	3506	1180.206378024629	3
0	3509	1181.059032598571	2
0	3512	1181.210566262574	3
0	3515	1182.059032598571	2
0	3517	1183.059032598571	1
0	3520	1183.880227997864	2
0	3521	1184.059032598571	1
0	3525	1185.059032598571	0
0	3530	1186.807659630297	1
0	3531	1187.941780282478	0
0	3534	1188.507719433099	1
0	3535	1188.941780282478	0
0	3538	1189.063102430271	1
0	3539	1189.941780282478	0
0	3546	1191.684852576597	1
0	3547	1192.428152664858	0
0	3550	1192.540416980776	1
0	3552	1192.719567336604	2
0	3553	1193.428152664858	1
0	3555	1194.428152664858	0
0	3560	1195.558364972163	1
0	3564	1196.067767346265	2
0	3565	1197.3983980199	1
0	3567	1198.3983980199	0
0	3576	1200.9314005431	1
0	3579	1202.875264659352	0
0	3588	1207.066742572942	1
0	3590	1207.115954710451	2
0	3592	1207.782563452931	3
0	3593	1208.296437673564	2
0	3596	1208.573821765217	3
0	3598	1208.614105398574	4
0	3599	1209.296437673564	3
0	3603	1210.296437673564	2
0	3609	1211.296437673564	1
0	3611	1212.296437673564	0
0	3616	1213.51645422869	1
0	3620	1214.510409937488	2
0	3621	1214.813281160141	1
0	3623	1215.813281160141	0
0	3632	1219.090955246838	1
0	3633	1220.361794734434	0
0	3654	1228.038036087058	1
0	3657	1228.698847154682	0
0	3660	1229.256302595174	1
0	3663	1229.698847154682	0
0	3668	1231.920910360206	1
0	3671	1232.623868844766	0
0	3676	1234.362569883344	1
0	3677	1235.209775165949	0
0	3680	1235.629611457675	1
0	3681	1236.209775165949	0
0	3686	1237.266501268999	1
0	3690	1237.796694973043	2
0	3691	1238.642027008409	1
0	3693	1239.642027008409	0
0	3696	1240.128785490155	1
0	3697	1240.642027008409	0
0	3708	1243.14006074941	1
0	3710	1243.906711921217	2
0	3711	1244.630657489939	1
0	3713	1245.630657489939	0
0	3718	1247.377493172716	1
0	3721	1248.437886580188	0
0	3724	1248.553898282149	1
0	3726	1249.159083106662	2
0	3727	1249.437886580188	1
0	3731	1250.437886580188	0
0	3736	1251.979092232865	1
0	3737	1253.229883596363	0
0	3740	1253.981531630166	1
0	3742	1254.100790236607	2
0	3743	1254.229883596363	1
0	3749	1255.229883596363	0
0	3764	1262.560496885254	1
0	3766	1262.846458988775	2
0	3767	1263.491045162378	1
0	3770	1264.321620957544	2
0	3772	1264.464621845552	3
0	3773	1264.491045162378	2
0	3778	1264.872737683987	3
0	3782	1265.185163647569	4
0	3785	1265.491045162378	3
0	3788	1266.410467091334	4
0	3789	1266.491045162378	3
0	3792	1267.345302485945	4
0	3793	1267.491045162378	3
0	3801	1268.491045162378	2
0	3803	1269.491045162378	1
0	3805	1270.491045162378	0
0	3808	1270.864088166544	1
0	3809	1271.491045162378	0
0	3812	1271.973732225582	1
0	3813	1272.491045162378	0
0	3818	1274.312226850087	1
0	3819	1275.310316557361	0
0	3822	1275.956708505116	1
0	3823	1276.310316557361	0
0	3826	1276.789809324537	1
0	3827	1277.310316557361	0
0	3830	1278.235388884876	1
0	3831	1278.310316557361	0
0	3838	1281.910131807279	1
0	3841	1282.548716112337	0
0	3846	1284.018931106535	1
0	3848	1284.567023800877	2
0	3849	1285.308949759527	1
0	3851	1286.308949759527	0
0	3854	1286.860736997176	1
0	3856	1287.280724589051	2
0	3857	1287.308949759527	1
0	3860	1287.649064667046	2
0	3863	1288.308949759527	1
0	3866	1288.33576693615	2
0	3867	1289.308949759527	1
0	3869	1290.308949759527	0
0	3872	1290.563849239317	1
0	3874	1290.874684816685	2
0	3875	1291.308949759527	1
0	3878	1292.001494511457	2
0	3879	1292.308949759527	1
0	3881	1293.308949759527	0
0	3888	1296.240350755333	1
0	3893	1297.55351565645	0
0	3898	1300.006912867869	1
0	3899	1300.194626425457	0
0	3904	1302.359009531084	1
0	3905	1302.408256381116	0
0	3916	1305.72205164998	1
0	3917	1306.345110443485	0
0	3926	1308.276137876341	1
0	3927	1308.556050365157	0
0	3936	1313.805656996879	1
0	3938	1313.980337307492	2
0	3939	1314.573531426089	1
0	3943	1315.573531426089	0
0	3948	1316.324758207418	1
0	3949	1316.573531426089	0
0	3960	1320.350127479731	1
0	3962	1320.70563982718	2
0	3963	1321.059419768695	1
0	3965	1322.059419768695	0
0	3970	1323.743399453522	1
0	3975	1324.806875029644	0
0	3986	1328.991585812662	1
0	3987	1329.656238969713	0
0	3996	1334.124523527048	1
0	3998	1334.505937956661	2
0	3999	1334.506146952109	1
0	4001	1335.506146952109	0
0	4010	1338.767147321888	1
0	4012	1339.440756658885	2
0	4015	1340.318006780762	1
0	4018	1341.221627969144	2
0	4019	1341.318006780762	1
0	4023	1342.318006780762	0
0	4026	1342.437527716924	1
0	4028	1342.721865934619	2
0	4031	1343.318006780762	1
0	4034	1343.371145907015	2
0	4036	1343.893194983554	3
0	4037	1344.318006780762	2
0	4039	1345.318006780762	1
0	4041	1346.318006780762	0
0	4044	1346.394555732805	1
0	4046	1347.295135146698	2
0	4047	1347.318006780762	1
0	4049	1348.318006780762	0
0	4056	1349.794198823503	1
0	4057	1350.570611121896	0
0	4062	1351.671093557675	1
0	4063	1353.142998250033	0
0	4066	1353.803648709328	1
0	4067	1354.142998250033	0
0	4070	1354.61810690302	1
0	4074	1355.133476382772	2
0	4075	1355.142998250033	1
0	4078	1355.72803573674	2
0	4079	1356.142998250033	1
0	4081	1357.142998250033	0
0	4084	1357.160435678188	1
0	4085	1358.142998250033	0
0	4092	1359.608849451167	1
0	4095	1360.871307612461	0
0	4100	1362.478960006283	1
0	4101	1363.322710431711	0
0	4114	1369.023404065923	1
0	4115	1369.399003135571	0
0	4122	1371.202390854075	1
0	4123	1371.571166233225	0
0	4136	1378.216172045382	1
0	4137	1378.638840688722	0
0	4140	1379.301892242943	1
0	4141	1379.638840688722	0
0	4146	1380.867845897632	1
0	4146	1380.867845897632	0
0	4152	1383.776156163914	1
0	4154	1384.658428468539	2
0	4155	1385.316031674846	1
0	4157	1386.316031674846	0
0	4160	1386.481093158777	1
0	4161	1387.316031674846	0
0	4164	1388.096883819403	1
0	4166	1388.277361112112	2
0	4167	1388.316031674846	1
0	4169	1389.316031674846	0
0	4178	1396.295009293852	1
0	4178	1396.295009293852	0
0	4182	1402.734320148193	1
0	4182	1402.734320148193	0
0	4186	1406.222027987713	1
0	4186	1406.222027987713	0
0	4190	1407.28434821459	1
0	4190	1407.28434821459	0
0	4206	1414.393150947962	1
0	4206	1414.393150947962	0
0	4210	1415.404854145135	1
0	4210	1415.404854145135	0
0	4214	1416.591447356837	1
0	4214	1416.591447356837	0
0	4218	1420.149229137571	1
0	4218	1420.149229137571	0
0	4224	1422.560725815855	1
0	4225	1423.085928468145	0
0	4230	1429.52699980127	1
0	4230	1429.52699980127	0
0	4242	1436.928202680765	1
0	4242	1436.928202680765	0
0	4246	1438.768354941729	1
0	4246	1438.768354941729	0
0	4252	1439.478390065119	1
0	4254	1439.751734002652	2
0	4255	1439.768354941729	1
0	4259	1440.768354941729	0
0	4270	1443.234298985636	1
0	4274	1444.185032175029	2
0	4275	1444.420020268169	1
0	4277	1445.420020268169	0
0	4280	1446.33298827753	1
0	4281	1446.420020268169	0
0	4286	1447.6465355596	1
0	4287	1449.144448725144	0
0	4290	1449.147936178008	1
0	4291	1450.144448725144	0
0	4316	1459.413715391877	1
0	4319	1460.140284776094	0
0	4324	1461.840212190082	1
0	4325	1462.175506078045	0
0	4330	1464.281694726528	1
0	4331	1464.794902521989	0
0	4334	1465.164646246746	1
0	4335	1465.794902521989	0
0	4338	1465.985741481236	1
0	4339	1466.794902521989	0
0	4342	1466.862588701969	1
0	4344	1467.768102513224	2
0	4345	1467.794902521989	1
0	4348	1467.986224860074	2
0	4349	1468.794902521989	1
0	4353	1469.794902521989	0
0	4356	1470.449418852724	1
0	4357	1470.794902521989	0
0	4370	1476.433785805147	1
0	4370	1476.433785805147	0
0	4374	1477.623970258624	1
0	4374	1477.623970258624	0
0	4376	1477.948074329614	1
0	4377	1478.623970258624	0
0	4382	1480.219846084106	1
0	4382	1480.219846084106	0
0	4386	1482.699377009691	1
0	4386	1482.699377009691	0
0	4390	1486.786469826527	1
0	4390	1486.786469826527	0
0	4394	1488.37247083976	1
0	4394	1488.37247083976	0
0	4398	1489.697184475657	1
0	4398	1489.697184475657	0
0	4406	1496.651773696619	1
0	4406	1496.651773696619	0
0	4412	1498.258369673166	1
0	4413	1499.341757547663	0
0	4426	1504.517810411559	1
0	4426	1504.517810411559	0
0	4428	1505.490059681865	1
0	4429	1505.517810411559	0
0	4434	1507.61143212812	1
0	4434	1507.61143212812	0
0	4436	1508.590088955893	1
0	4437	1508.61143212812	0
0	4440	1508.804640996053	1
0	4441	1509.61143212812	0
0	4446	1510.615533154137	1
0	4446	1510.615533154137	0
0	4456	1513.834661613961	1
0	4458	1513.958259007728	2
0	4460	1514.343753841995	3
0	4461	1514.599421733899	2
0	4463	1515.599421733899	1
0	4466	1515.804185492158	2
0	4467	1516.599421733899	1
0	4470	1517.339260243115	2
0	4473	1517.599421733899	1
0	4475	1518.599421733899	0
0	4480	1519.511925060116	1
0	4481	1519.599421733899	0
0	4484	1520.09412193648	1
0	4485	1520.599421733899	0
0	4488	1520.75372313359	1
0	4489	1521.599421733899	0
0	4496	1523.495077445284	1
0	4497	1524.400870554058	0
0	4504	1526.24534772383	1
0	4505	1526.48765569241	0
0	4510	1528.233564715418	1
0	4513	1528.520206642013	0
0	4516	1528.850668319608	1
0	4519	1529.520206642013	0
0	4524	1530.593698661758	1
0	4525	1532.093059308968	0
0	4530	1532.289179312964	1
0	4532	1532.558867580001	2
0	4533	1533.093059308968	1
0	4535	1534.093059308968	0
0	4554	1539.754631419802	1
0	4556	1540.563539083147	2
0	4557	1541.51260051774	1
0	4561	1542.51260051774	0
0	4568	1544.455623640782	1
0	4573	1545.102745883541	0
0	4580	1546.635668948024	1
0	4582	1546.695471164931	2
0	4585	1547.635367547536	1
0	4587	1548.635367547536	0
0	4592	1550.192626436994	1
0	4593	1550.961921780046	0
0	4602	1551.962469412543	1
0	4604	1553.044535552266	2
0	4605	1553.057620347852	1
0	4608	1553.638782607995	2
0	4610	1553.901386389368	3
0	4612	1554.003171146744	4
0	4613	1554.057620347852	3
0	4616	1554.496024521262	4
0	4618	1554.963446233394	5
0	4620	1554.966921357492	6
0	4621	1555.057620347852	5
0	4624	1555.125019353642	6
0	4626	1555.432241446728	7
0	4629	1556.057620347852	6
0	4631	1557.057620347852	5
0	4633	1558.057620347852	4
0	4637	1559.057620347852	3
0	4639	1560.057620347852	2
0	4641	1561.057620347852	1
0	4643	1562.057620347852	0
0	4652	1565.577170416507	1
0	4655	1566.491577937177	0
0	4660	1567.626680254079	1
0	4661	1569.134554661953	0
0	4664	1569.751741163319	1
0	4665	1570.134554661953	0
0	4680	1577.201580445157	1
0	4681	1577.618390049463	0
0	4686	1579.881661629061	1
0	4687	1580.471589595921	0
0	4690	1580.692427922526	1
0	4692	1580.704785655263	2
0	4694	1581.02436019638	3
0	4695	1581.471589595921	2
0	4697	1582.471589595921	1
0	4700	1583.455856124778	2
0	4701	1583.471589595921	1
0	4703	1584.471589595921	0
0	4714	1587.837842915993	1
0	4715	1588.127341618439	0
0	4718	1588.97075265614	1
0	4719	1589.127341618439	0
0	4728	1591.369873334238	1
0	4730	1591.528281990562	2
0	4734	1592.130629267363	3
0	4735	1592.583928815465	2
0	4738	1593.151293560767	3
0	4741	1593.583928815465	2
0	4743	1594.583928815465	1
0	4746	1594.665035273318	2
0	4747	1595.583928815465	1
0	4749	1596.583928815465	0
0	4764	1601.052689203373	1
0	4766	1601.769465721506	2
0	4767	1602.423151854336	1
0	4770	1602.54302813171	2
0	4771	1603.423151854336	1
0	4773	1604.423151854336	0
0	4776	1604.878541010053	1
0	4778	1605.079124307892	2
0	4779	1605.423151854336	1
0	4782	1605.701697536644	2
0	4787	1606.423151854336	1
0	4789	1607.423151854336	0
0	4808	1615.945099028921	1
0	4809	1616.139839409528	0
0	4814	1616.30726656881	1
0	4815	1617.139839409528	0
0	4822	1619.286141971953	1
0	4823	1620.275574510595	0
0	4826	1620.944104429703	1
0	4828	1621.154860369323	2
0	4829	1621.275574510595	1
0	4833	1622.275574510595	0
0	4840	1624.969477676058	1
0	4842	1625.227255281087	2
0	4843	1626.037422568681	1
0	4847	1627.037422568681	0
0	4856	1628.621568691255	1
0	4859	1629.682060530087	0
0	4872	1632.695505725391	1
0	4873	1633.029049441362	0
0	4886	1637.292561521326	1
0	4890	1637.723944244367	2
0	4892	1638.152278705518	3
0	4893	1638.488214092706	2
0	4895	1639.488214092706	1
0	4898	1640.108302937499	2
0	4899	1640.488214092706	1
0	4901	1641.488214092706	0
0	4906	1643.645867891411	1
0	4907	1643.988757223268	0
0	4912	1645.748533207177	1
0	4913	1646.134033540641	0
0	4918	1647.338295820735	1
0	4919	1648.294618564802	0
0	4928	1651.06766173931	1
0	4929	1652.335876737865	0
0	4932	1653.220503010511	1
0	4933	1653.335876737865	0
0	4938	1655.318141584534	1
0	4939	1655.65688285083	0
0	4944	1657.483604493115	1
0	4947	1658.542064448962	0
0	4956	1662.781720778744	1
0	4957	1662.994842149771	0
0	4962	1664.779298052658	1
0	4962	1664.779298052658	0
0	4964	1665.719266098285	1
0	4965	1665.779298052658	0
0	4968	1666.6063971081	1
0	4969	1666.779298052658	0
0	4972	1667.073602445939	1
0	4973	1667.779298052658	0
0	4978	1668.743266133765	1
0	4979	1668.779298052658	0
0	4988	1670.724008969376	1
0	4990	1670.908132166318	2
0	4991	1670.93850548449	1
0	4995	1671.93850548449	0
0	5002	1673.631193173811	1
0	5003	1674.616018004716	0
0	5014	1678.062854106789	1
0	5016	1678.601647963411	2
0	5018	1678.725135962462	3
0	5019	1679.051352251089	2
0	5022	1679.943638135351	3
0	5023	1680.051352251089	2
0	5028	1680.753929290979	3
0	5029	1681.051352251089	2
0	5032	1681.362713621422	3
0	5035	1682.051352251089	2
0	5037	1683.051352251089	1
0	5040	1683.600774031141	2
0	5043	1684.051352251089	1
0	5046	1684.326873234635	2
0	5047	1685.051352251089	1
0	5053	1686.051352251089	0
0	5064	1689.040496210098	1
0	5066	1689.170922368421	2
0	5068	1689.22484450199	3
0	5071	1690.069041781361	2
0	5073	1691.069041781361	1
0	5075	1692.069041781361	0
0	5082	1693.250128765647	1
0	5084	1693.768611511283	2
0	5085	1694.297013671837	1
0	5089	1695.297013671837	0
0	5094	1697.317145924658	1
0	5095	1697.728078784189	0
0	5108	1703.286389578527	1
0	5110	1703.532674926916	2
0	5112	1703.740969520842	3
0	5113	1704.319905687124	2
0	5119	1705.319905687124	1
0	5122	1705.404401535963	2
0	5124	1705.762711218816	3
0	5125	1706.319905687124	2
0	5127	1707.319905687124	1
0	5129	1708.319905687124	0
0	5132	1708.998759433481	1
0	5134	1709.08108679802	2
0	5135	1709.319905687124	1
0	5137	1710.319905687124	0
0	5154	1717.829702895683	1
0	5157	1718.286458336283	0
0	5162	1720.844169098448	1
0	5163	1721.043563806452	0
0	5168	1723.651025284595	1
0	5169	1723.686012352584	0
0	5176	1726.029267448116	1
0	5177	1726.369407048216	0
0	5186	1729.910894021401	1
0	5189	1731.546201622579	0
0	5198	1735.795876369178	1
0	5199	1735.842473215656	0
0	5206	1737.635246640461	1
0	5207	1738.292596287559	0
0	5210	1738.324294133818	1
0	5211	1739.292596287559	0
0	5214	1740.087813580004	1
0	5215	1740.292596287559	0
0	5220	1742.196919499101	1
0	5221	1742.808136193081	0
0	5224	1743.621696695998	1
0	5225	1743.808136193081	0
0	5228	1744.220422093043	1
0	5233	1744.808136193081	0
0	5238	1745.863988860494	1
0	5240	1746.799633652214	2
0	5242	1747.451125689508	3
0	5243	1747.555945238563	2
0	5245	1748.555945238563	1
0	5248	1749.328536502543	2
0	5249	1749.555945238563	1
0	5252	1750.5374668865	2
0	5253	1750.555945238563	1
0	5256	1750.882314969848	2
0	5257	1751.555945238563	1
0	5259	1752.555945238563	0
0	5266	1756.744010928039	1
0	5266	1756.744010928039	0
0	5270	1757.726192506579	1
0	5271	1757.744010928039	0
0	5276	1759.443754487582	1
0	5278	1759.715646102695	2
0	5279	1759.856919608497	1
0	5281	1760.856919608497	0
0	5286	1761.239715465145	1
0	5287	1761.856919608497	0
0	5294	1765.051863422524	1
0	5294	1765.051863422524	0
0	5300	1766.685377381274	1
0	5302	1767.368330854798	2
0	5303	1767.711425667768	1
0	5305	1768.711425667768	0
0	5312	1770.807948411072	1
0	5314	1771.055895409463	2
0	5317	1771.665991893876	1
0	5319	1772.665991893876	0
0	5332	1779.212909511831	1
0	5333	1780.598041519789	0
0	5338	1782.448182586406	1
0	5338	1782.448182586406	0
0	5340	1783.024987450571	1
0	5341	1783.448182586406	0
0	5350	1785.672696108012	1
0	5350	1785.672696108012	0
0	5354	1787.155207960968	1
0	5354	1787.155207960968	0
0	5358	1791.106894304784	1
0	5358	1791.106894304784	0
0	5366	1797.572899413151	1
0	5366	1797.572899413151	0
0	5374	1799.901810561959	1
0	5375	1800.647655129355	0
0	5378	1801.509327515864	1
0	5379	1801.647655129355	0
0	5388	1805.728299896357	1
0	5389	1806.129861514472	0
0	5396	1807.224969540309	1
0	5397	1808.991912183274	0
0	5400	1809.886315443595	1
0	5401	1809.991912183274	0
0	5404	1810.407621285681	1
0	5406	1810.888984863593	2
0	5407	1810.991912183274	1
0	5409	1811.991912183274	0
0	5412	1812.896883254	1
0	5413	1812.991912183274	0
0	5418	1816.101357672543	1
0	5418	1816.101357672543	0
0	5426	1820.739315481733	1
0	5426	1820.739315481733	0
0	5428	1821.374043032278	1
0	5429	1821.739315481733	0
0	5446	1827.307234497689	1
0	5446	1827.307234497689	0
0	5458	1834.409404849205	1
0	5458	1834.409404849205	0
0	5464	1835.64091148372	1
0	5466	1836.278568380123	2
0	5469	1836.833662545113	1
0	5471	1837.833662545113	0
0	5474	1838.801058898483	1
0	5477	1838.833662545113	0
0	5482	1839.159536338922	1
0	5484	1839.577089419483	2
0	5486	1839.734797955709	3
0	5487	1839.833662545113	2
0	5489	1840.833662545113	1
0	5492	1841.002915237365	2
0	5494	1841.082443876477	3
0	5496	1841.466703507434	4
0	5497	1841.833662545113	3
0	5499	1842.833662545113	2
0	5502	1843.108920560657	3
0	5503	1843.833662545113	2
0	5506	1844.592119485381	3
0	5507	1844.833662545113	2
0	5509	1845.833662545113	1
0	5514	1846.044015560321	2
0	5515	1846.833662545113	1
0	5517	1847.833662545113	0
0	5520	1848.152250721265	1
0	5521	1848.833662545113	0
0	5528	1850.009041622487	1
0	5531	1851.136670084708	0
0	5544	1856.683491847655	1
0	5545	1858.126446478107	0
0	5550	1859.385306743811	1
0	5552	1860.639688938038	2
0	5553	1860.705611224557	1
0	5555	1861.705611224557	0
0	5560	1863.665241578901	1
0	5561	1864.120328903236	0
0	5564	1864.423015023822	1
0	5565	1865.120328903236	0
0	5570	1867.653409632934	1
0	5570	1867.653409632934	0
0	5580	1872.08606150847	1
0	5581	1873.602507856679	0
0	5584	1873.704452383832	1
0	5585	1874.602507856679	0
0	5592	1877.467363548705	1
0	5593	1878.966567711079	0
0	5596	1879.15451812179	1
0	5599	1879.966567711079	0
0	5604	1881.441689379206	1
0	5606	1881.549518322397	2
0	5607	1882.266339006939	1
0	5609	1883.266339006939	0
0	5616	1885.994160359926	1
0	5619	1887.090851158203	0
0	5628	1890.257269818313	1
0	5632	1890.615530205072	2
0	5633	1891.17699250865	1
0	5636	1892.065451677719	2
0	5637	1892.17699250865	1
0	5639	1893.17699250865	0
0	5644	1893.833904248606	1
0	5645	1894.17699250865	0
0	5656	1897.348309201636	1
0	5658	1897.491624545144	2
0	5659	1897.851003215716	1
0	5661	1898.851003215716	0
0	5670	1906.098221135182	1
0	5670	1906.098221135182	0
0	5672	1906.425645619531	1
0	5677	1907.098221135182	0
0	5680	1907.603205683555	1
0	5681	1908.098221135182	0
0	5684	1908.40297820085	1
0	5685	1909.098221135182	0
0	5694	1913.138900912258	1
0	5695	1913.519699438332	0
0	5702	1917.793722378771	1
0	5702	1917.793722378771	0
0	5708	1919.993719706232	1
0	5709	1920.050237314758	0
0	5722	1925.028265559881	1
0	5722	1925.028265559881	0
0	5724	1925.21464071861	1
0	5729	1926.028265559881	0
0	5742	1931.376896485593	1
0	5743	1931.487579467075	0
0	5752	1935.370547863554	1
0	5753	1935.573272809919	0
0	5758	1937.185750107355	1
0	5758	1937.185750107355	0
0	5766	1939.422146931604	1
0	5766	1939.422146931604	0
0	5768	1940.241676516488	1
0	5769	1940.422146931604	0
0	5772	1941.100569820117	1
0	5773	1941.422146931604	0
0	5786	1944.248318623937	1
0	5789	1945.630589031462	0
0	5792	1946.278629196252	1
0	5794	1946.583112057583	2
0	5795	1946.630589031462	1
0	5797	1947.630589031462	0
0	5802	1949.314135253676	1
0	5804	1949.326335539752	2
0	5805	1950.467704877105	1
0	5807	1951.467704877105	0
0	5818	1955.414237163943	1
0	5819	1955.837143268749	0
0	5822	1956.606400721435	1
0	5823	1956.837143268749	0
0	5834	1959.261193286075	1
0	5835	1960.707126214249	0
0	5838	1960.932536052885	1
0	5839	1961.707126214249	0
0	5844	1962.935792429179	1
0	5847	1964.119851403018	0
0	5850	1964.586095701466	1
0	5854	1964.988509444059	2
0	5855	1965.119851403018	1
0	5858	1965.590448274245	2
0	5859	1966.119851403018	1
0	5861	1967.119851403018	0
0	5864	1968.086963983883	1
0	5865	1968.119851403018	0
0	5868	1968.365042895205	1
0	5870	1969.117137023551	2
0	5871	1969.119851403018	1
0	5874	1969.140467396206	2
0	5876	1969.816581094456	3
0	5877	1970.119851403018	2
0	5882	1970.560466623023	3
0	5884	1970.680095862367	4
0	5887	1971.119851403018	3
0	5889	1972.119851403018	2
0	5891	1973.119851403018	1
0	5893	1974.119851403018	0
0	5898	1975.803230074305	1
0	5899	1976.803850345393	0
0	5912	1979.254647462121	1
0	5913	1980.333496338302	0
0	5918	1981.123990592417	1
0	5919	1981.333496338302	0
0	5922	1981.889081758147	1
0	5923	1982.333496338302	0
0	5932	1985.587801380297	1
0	5933	1986.781791411886	0
0	5940	1987.951150566336	1
0	5944	1989.17069551036	2
0	5945	1989.298027448203	1
0	5949	1990.298027448203	0
0	5954	1990.611079832596	1
0	5956	1991.16060248735	2
0	5957	1991.298027448203	1
0	5960	1991.305492555592	2
0	5961	1992.298027448203	1
0	5963	1993.298027448203	0
0	5974	1995.967705387314	1
0	5976	1996.355531015726	2
0	5979	1996.954819086554	1
0	5983	1997.954819086554	0
0	5986	1998.429374839535	1
0	5987	1998.954819086554	0
0	5994	2000.183518971723	1
0	5995	2001.393902041331	0
0	6002	2005.037384651378	1
0	6006	2005.370014046765	2
0	6007	2005.666956154477	1
0	6010	2006.521081650134	2
0	6011	2006.666956154477	1
0	6014	2006.83476019765	2
0	6015	2007.666956154477	1
0	6020	2008.51736218299	2
0	6021	2008.666956154477	1
0	6026	2009.382860550902	2
0	6027	2009.666956154477	1
0	6029	2010.666956154477	0
0	6048	2017.052421226119	1
0	6050	2017.084053645183	2
0	6051	2017.971945038844	1
0	6054	2018.681766080713	2
0	6055	2018.971945038844	1
0	6059	2019.971945038844	0
0	6064	2022.321258589604	1
0	6065	2022.677516944554	0
0	6068	2022.759067569375	1
0	6071	2023.677516944554	0
0	6084	2028.960555377334	1
0	6086	2029.012046567701	2
0	6088	2029.528080754365	3
0	6089	2029.592097597743	2
0	6093	2030.592097597743	1
0	6100	2031.281345626023	2
0	6101	2031.592097597743	1
0	6104	2031.686476747191	2
0	6106	2032.17866881859	3
0	6107	2032.592097597743	2
0	6109	2033.592097597743	1
0	6111	2034.592097597743	0
0	6118	2037.633733607564	1
0	6119	2038.573371413478	0
0	6128	2043.678840162411	1
0	6129	2043.692799143341	0
0	6136	2045.272170303141	1
0	6137	2045.971248646813	0
0	6144	2048.859900643729	1
0	6146	2049.694612613517	2
0	6148	2049.934865165735	3
0	6151	2050.218880444381	2
0	6155	2051.218880444381	1
0	6157	2052.218880444381	0
0	6160	2052.562700313983	1
0	6161	2053.218880444381	0
0	6170	2055.102222830852	1
0	6171	2055.774691793218	0
0	6174	2056.729296457703	1
0	6175	2056.774691793218	0
0	6182	2058.994069947525	1
0	6184	2059.056640176878	2
0	6185	2059.371330807067	1
0	6188	2059.440829464188	2
0	6191	2060.371330807067	1
0	6193	2061.371330807067	0
0	6204	2065.862489343667	1
0	6205	2065.997429611475	0
0	6212	2067.364420231689	1
0	6216	2068.380209024898	2
0	6219	2068.64936171876	1
0	6221	2069.64936171876	0
0	6236	2076.87697829649	1
0	6237	2077.498849821359	0
0	6240	2078.105166790285	1
0	6241	2078.498849821359	0
0	6254	2085.641044315849	1
0	6255	2086.117818383583	0
0	6264	2087.397083622279	1
0	6265	2088.871824986384	0
0	6274	2091.834375310655	1
0	6277	2093.632798108355	0
0	6284	2096.519712482567	1
0	6285	2097.106603720075	0
0	6290	2098.503774095556	1
0	6291	2099.612695479382	0
0	6298	2100.760319729113	1
0	6299	2101.931390638312	0
0	6308	2106.051414841348	1
0	6311	2107.699134074699	0
0	6324	2115.195365743723	1
0	6325	2115.230640584452	0
0	6330	2116.061249241988	1
0	6331	2116.230640584452	0
0	6334	2116.252311026003	1
0	6335	2117.230640584452	0
0	6342	2121.300402915078	1
0	6342	2121.300402915078	0
0	6344	2121.364811100683	1
0	6345	2122.300402915078	0
0	6348	2122.953323407223	1
0	6349	2123.300402915078	0
0	6354	2124.57825346802	1
0	6354	2124.57825346802	0
0	6358	2128.035656526661	1
0	6358	2128.035656526661	0
0	6366	2132.324841302289	1
0	6366	2132.324841302289	0
0	6370	2133.945225485613	1
0	6370	2133.945225485613	0
0	6374	2136.320379353297	1
0	6374	2136.320379353297	0
0	6378	2137.852032740801	1
0	6378	2137.852032740801	0
0	6386	2139.623069453492	1
0	6387	2140.691541698962	0
0	6398	2143.615109036211	1
0	6399	2145.052294127378	0
0	6404	2145.77735243595	1
0	6405	2146.052294127378	0
0	6408	2146.842519874105	1
0	6409	2147.052294127378	0
0	6418	2151.258136977294	1
0	6418	2151.258136977294	0